LAMMPS DATA FILE by G. Jung@ORNL

20 atoms
8 atom types
0 98.38048553466797 xlo xhi
0 97.9800033569336 ylo yhi
0 100.0 zlo zhi

Masses

1 1.01
2 4.00
3 6.94
4 9.01
5 10.81
6 12.01
7 14.01
8 16.0

Atoms

1 6 0 50.22359848022461 50.35689926147461 51.918399810791016
2 1 0 51.315799713134766 50.392398834228516 51.908199310302734
3 1 0 49.878501892089844 51.390098571777344 51.929298400878906
4 6 0 49.74440002441406 49.65489959716797 50.640098571777344
5 1 0 50.085601806640625 48.62990188598633 50.653099060058594
6 1 0 48.65629959106445 49.60459899902344 50.6161003112793
7 6 0 50.23400115966797 50.35749816894531 49.36819839477539
8 1 0 51.33209991455078 50.4098014831543 49.397499084472656
9 1 0 49.8838005065918 51.39099884033203 49.359100341796875
10 6 0 49.77289962768555 49.65039825439453 53.18830108642578
11 1 0 48.69240188598633 49.664798736572266 53.27519989013672
12 1 0 50.125999450683594 48.61909866333008 53.21870040893555
13 1 0 50.145599365234375 50.17169952392578 54.06480026245117
14 6 0 49.77909851074219 49.67219924926758 48.08760070800781
15 1 0 50.10200119018555 48.62260055541992 48.10100173950195
16 1 0 48.67720031738281 49.659698486328125 48.03459930419922
17 6 0 50.32429885864258 50.35329818725586 46.840599060058594
18 1 0 50.007198333740234 51.38890075683594 46.767398834228516
19 1 0 51.405601501464844 50.33380126953125 46.842498779296875
20 1 0 49.976600646972656 49.84939956665039 45.94369888305664
