LAMMPS DATA FILE by G. Jung@ORNL

20 atoms
8 atom types
0.0 100 xlo xhi
0.0 100 ylo yhi
0.0 100 zlo zhi

Masses

1 1.01
2 4.00
3 6.94
4 9.01
5 10.81
6 12.01
7 14.01
8 16.0

Atoms

1 6 0 0.248235 0.336134 1.877461
2 1 0 1.370427 0.336134 1.877461
3 1 0 -0.081174 1.408879 1.877461
4 6 0 -0.25546 -0.345441 0.622917
5 1 0 0.074032 -1.417927 0.620487
6 1 0 -1.377419 -0.344894 0.620303
7 6 0 0.255485 0.345438 -0.622924
8 1 0 1.377444 0.344744 -0.620373
9 1 0 -0.073859 1.41797 -0.620449
10 6 0 -0.257899 -0.348747 3.120549
11 1 0 -1.374354 -0.336966 3.150608
12 1 0 0.081183 -1.412519 3.150656
13 1 0 0.124904 0.16934 4.032753
14 6 0 -0.248395 -0.336014 -1.87746
15 1 0 0.080652 -1.40887 -1.877408
16 1 0 -1.370566 -0.335634 -1.87749
17 6 0 0.258016 0.348639 -3.120549
18 1 0 -0.080702 1.412536 -3.150687
19 1 0 1.374468 0.336468 -3.150553
20 1 0 -0.12493 -0.169316 -4.032743
