LAMMPS DATA FILE by G. Jung@ORNL

20 atoms
8 atom types
0 98.38048553466797 xlo xhi
0 97.9800033569336 ylo yhi
0 100.0 zlo zhi

Masses

1 1.01
2 4.00
3 6.94
4 9.01
5 10.81
6 12.01
7 14.01
8 16.0

Atoms

1 6 0 0.2203393429517746 0.35593870282173157 1.656755805015564
2 1 0 1.115938663482666 0.07063749432563782 2.195955514907837
3 1 0 -0.3928617835044861 1.0752379894256592 2.190157175064087
4 6 0 -0.2819609045982361 -0.35866090655326843 0.5425551533699036
5 1 0 0.03713851049542427 -1.4092628955841064 0.5666564106941223
6 1 0 -1.3700613975524902 -0.37946245074272156 0.5774558186531067
7 6 0 0.2588372826576233 0.38353803753852844 -0.7253434062004089
8 1 0 1.3553376197814941 0.4340369999408722 -0.6476418375968933
9 1 0 -0.0966619923710823 1.4286391735076904 -0.6820427775382996
10 6 0 -0.39046233892440796 -0.5560638308525085 4.291258335113525
11 1 0 -0.7344641089439392 -1.3405640125274658 3.6415579319000244
12 1 0 0.6807389855384827 -0.4152633845806122 4.260557651519775
13 1 0 -0.9646620154380798 0.3545387089252472 4.165754795074463
14 6 0 -0.12316269427537918 -0.19076082110404968 -2.2000443935394287
15 1 0 0.19423918426036835 -1.237361192703247 -2.210744619369507
16 1 0 -1.2172636985778809 -0.21126100420951843 -2.2412431240081787
17 6 0 0.3226380944252014 0.3737380802631378 -3.5656449794769287
18 1 0 1.0918374061584473 1.143437147140503 -3.4854447841644287
19 1 0 0.7384362816810608 -0.4071609675884247 -4.194642543792725
20 1 0 -0.511861264705658 0.801739513874054 -4.1308417320251465
