LAMMPS DATA FILE by G. Jung@ORNL

20 atoms
8 atom types
0 98.38048553466797 xlo xhi
0 97.9800033569336 ylo yhi
0 100.0 zlo zhi

Masses

1 1.01
2 4.00
3 6.94
4 9.01
5 10.81
6 12.01
7 14.01
8 16.0

Atoms

1 6 0 50.039798736572266 49.99679946899414 52.799400329589844
2 1 0 50.92924136984902 49.740139196997454 53.5639421449955
3 1 0 49.28304957570149 50.47914790333821 53.4159498137386
4 6 0 50.628117868933295 51.011914560827826 51.800515482458685
5 1 0 51.359580169522786 50.50947869857552 51.15777886947396
6 1 0 49.81322069911341 51.34672137050013 51.113822658341924
7 6 0 51.26322566751463 52.19722377542479 52.437923543491195
8 1 0 52.38836857577074 52.254167525966054 52.76346775789965
9 1 0 50.63233055142074 53.00723136929184 52.75892890957504
10 6 0 49.34835013158086 48.765048587391405 52.102748477528124
11 1 0 48.57825580821792 49.12775531993667 51.499558603628074
12 1 0 50.09823896088522 48.25314237275045 51.5266409079067
13 1 0 49.001915411660676 48.13521237821341 52.897213415811066
14 6 0 49.03310229119177 48.306402462090205 45.152601497734736
15 1 0 50.14489834596457 48.21729748536887 45.24909680177512
16 1 0 48.47569565839946 48.96589570112407 45.7329931742686
17 6 0 48.170782941657215 47.29648484595409 44.2789830148994
18 1 0 47.397694296100006 47.89499730513321 43.96389455244766
19 1 0 48.81442711720612 46.975025872088935 43.50522683034089
20 1 0 47.92070712577408 46.54340686332291 44.95790423881119
